 vasp.5.3.5 31Mar14 (build Dec 17 2015 22:09:37) complex                        
  
 executed on             LinuxIFC date 2016.08.15  16:47:21
 running on    1 total cores
 distrk:  each k-point on    1 cores,    1 groups
 distr:  one band on NCORES_PER_BAND=   1 cores,    1 groups


--------------------------------------------------------------------------------------------------------


 INCAR:
 POTCAR:   PAW_RPBE O 08Apr2002                   
 POTCAR:   PAW_RPBE H 15Jun2001                   
 POTCAR:   PAW_RPBE O 08Apr2002                   
   VRHFIN =O: s2p4                                                              
   LEXCH  = PE                                                                  
   EATOM  =   432.3788 eV,   31.7789 Ry                                         
                                                                                
   TITEL  = PAW_RPBE O 08Apr2002                                                
   LULTRA =        F    use ultrasoft PP ?                                      
   IUNSCR =        0    unscreen: 0-lin 1-nonlin 2-no                           
   RPACOR =     .000    partial core radius                                     
   POMASS =   16.000; ZVAL   =    6.000    mass and valenz                      
   RCORE  =    1.520    outmost cutoff radius                                   
   RWIGS  =    1.550; RWIGS  =     .820    wigner-seitz radius (au A)           
   ENMAX  =  400.000; ENMIN  =  300.000 eV                                      
   ICORE  =        2    local potential                                         
   LCOR   =        T    correct aug charges                                     
   LPAW   =        T    paw PP                                                  
   EAUG   =  605.392                                                            
   DEXC   =     .000                                                            
   RMAX   =    2.264    core radius for proj-oper                               
   RAUG   =    1.300    factor for augmentation sphere                          
   RDEP   =    1.550    radius for radial grids                                 
   QCUT   =   -5.520; QGAM   =   11.041    optimization parameters              
                                                                                
   Description                                                                  
     l     E      TYP  RCUT    TYP  RCUT                                        
     0   .000     23  1.200                                                     
     0  -.700     23  1.200                                                     
     1   .000     23  1.520                                                     
     1   .600     23  1.520                                                     
     2   .000      7  1.500                                                     
  local pseudopotential read in
  atomic valenz-charges read in
  non local Contribution for L=           0  read in
    real space projection operators read in
  non local Contribution for L=           0  read in
    real space projection operators read in
  non local Contribution for L=           1  read in
    real space projection operators read in
  non local Contribution for L=           1  read in
    real space projection operators read in
    PAW grid and wavefunctions read in
 
   number of l-projection  operators is LMAX  =           4
   number of lm-projection operators is LMMAX =           8
 
 POTCAR:   PAW_RPBE H 15Jun2001                   
   VRHFIN =H: ultrasoft test                                                    
   LEXCH  = PE                                                                  
   EATOM  =    12.4884 eV,     .9179 Ry                                         
                                                                                
   TITEL  = PAW_RPBE H 15Jun2001                                                
   LULTRA =        F    use ultrasoft PP ?                                      
   IUNSCR =        0    unscreen: 0-lin 1-nonlin 2-no                           
   RPACOR =     .000    partial core radius                                     
   POMASS =    1.000; ZVAL   =    1.000    mass and valenz                      
   RCORE  =    1.100    outmost cutoff radius                                   
   RWIGS  =     .700; RWIGS  =     .370    wigner-seitz radius (au A)           
   ENMAX  =  250.000; ENMIN  =  200.000 eV                                      
   RCLOC  =     .701    cutoff for local pot                                    
   LCOR   =        T    correct aug charges                                     
   LPAW   =        T    paw PP                                                  
   EAUG   =  400.000                                                            
   RMAX   =    2.174    core radius for proj-oper                               
   RAUG   =    1.200    factor for augmentation sphere                          
   RDEP   =    1.112    radius for radial grids                                 
   QCUT   =   -5.749; QGAM   =   11.498    optimization parameters              
                                                                                
   Description                                                                  
     l     E      TYP  RCUT    TYP  RCUT                                        
     0   .000     23  1.100                                                     
     0   .500     23  1.100                                                     
     1  -.300     23  1.100                                                     
  local pseudopotential read in
  atomic valenz-charges read in
  non local Contribution for L=           0  read in
    real space projection operators read in
  non local Contribution for L=           0  read in
    real space projection operators read in
  non local Contribution for L=           1  read in
    real space projection operators read in
    PAW grid and wavefunctions read in
 
   number of l-projection  operators is LMAX  =           3
   number of lm-projection operators is LMMAX =           5
 
 PAW_RPBE O 08Apr2002                   :
 energy of atom  1       EATOM= -432.3788
 kinetic energy error for atom=    0.1156 (will be added to EATOM!!)
 PAW_RPBE H 15Jun2001                   :
 energy of atom  2       EATOM=  -12.4884
 kinetic energy error for atom=    0.0098 (will be added to EATOM!!)
 
 
 POSCAR: H2O                                     
  positions in cartesian coordinates
  No initial velocities read in
 exchange correlation table for  LEXCH =        8
   RHO(1)=    0.500       N(1)  =     2000
   RHO(2)=  100.500       N(2)  =     4000

 VTST: version 3.1, (03/28/14)

 CHAIN: initializing optimizer
 
 OPT: Using VASP QUASI-newton optimizer
 CHAIN: Read ICHAIN            0
 
 POSCAR: H2O                                     
  positions in cartesian coordinates
  No initial velocities read in
 


--------------------------------------------------------------------------------------------------------


 ion  position               nearest neighbor table
   1  0.000  0.000  0.000-   3 0.86   2 1.00
   2  0.067  0.000  0.000-   1 1.00
   3  0.967  0.047  0.000-   1 0.86
 
  LATTYP: Found a simple cubic cell.
 ALAT       =    15.0000000000
  
  Lattice vectors:
  
 A1 = (  15.0000000000,   0.0000000000,   0.0000000000)
 A2 = (   0.0000000000,  15.0000000000,   0.0000000000)
 A3 = (   0.0000000000,   0.0000000000,  15.0000000000)


Analysis of symmetry for initial positions (statically):
=====================================================================
 Subroutine PRICEL returns:
 Original cell was already a primitive cell.
 

 Routine SETGRP: Setting up the symmetry group for a 
 simple cubic supercell.


 Subroutine GETGRP returns: Found  2 space group operations
 (whereof  2 operations were pure point group operations)
 out of a pool of 48 trial point group operations.


The static configuration has the point symmetry C_1h.


Analysis of symmetry for dynamics (positions and initial velocities):
=====================================================================
 Subroutine PRICEL returns:
 Original cell was already a primitive cell.
 

 Routine SETGRP: Setting up the symmetry group for a 
 simple cubic supercell.


 Subroutine GETGRP returns: Found  2 space group operations
 (whereof  2 operations were pure point group operations)
 out of a pool of 48 trial point group operations.


The dynamic configuration has the point symmetry C_1h.


Analysis of constrained symmetry for selective dynamics:
=====================================================================
 Subroutine PRICEL returns:
 Original cell was already a primitive cell.
 

 Routine SETGRP: Setting up the symmetry group for a 
 simple cubic supercell.


 Subroutine GETGRP returns: Found  2 space group operations
 (whereof  2 operations were pure point group operations)
 out of a pool of 48 trial point group operations.


The constrained configuration has the point symmetry C_1h.
 
 
 KPOINTS: Gamma-point only                        
  k-points in reciprocal lattice
Space group operators:
 irot       det(A)        alpha          n_x          n_y          n_z        tau_x        tau_y        tau_z
    1     1.000000     0.000000     1.000000     0.000000     0.000000     0.000000     0.000000     0.000000
    2    -1.000000   180.000000     0.000000     0.000000     1.000000     0.000000     0.000000     0.000000


--------------------------------------------------------------------------------------------------------




 Dimension of arrays:
   k-points           NKPTS =      1   k-points in BZ     NKDIM =      1   number of bands    NBANDS=      8
   number of dos      NEDOS =    301   number of ions     NIONS =      3
   non local maximal  LDIM  =      4   non local SUM 2l+1 LMDIM =      8
   total plane-waves  NPLWV = 512000
   max r-space proj   IRMAX =      1   max aug-charges    IRDMAX=   2167
   dimension x,y,z NGX =    80 NGY =   80 NGZ =   80
   dimension x,y,z NGXF=   160 NGYF=  160 NGZF=  160
   support grid    NGXF=   160 NGYF=  160 NGZF=  160
   ions per type =               1   2
 NGX,Y,Z   is equivalent  to a cutoff of   8.87,  8.87,  8.87 a.u.
 NGXF,Y,Z  is equivalent  to a cutoff of  17.73, 17.73, 17.73 a.u.


 I would recommend the setting:
   dimension x,y,z NGX =    73 NGY =   73 NGZ =   73
 SYSTEM =  unknown system                          
 POSCAR =  H2O                                     

 Startparameter for this run:
   NWRITE =      2    write-flag & timer
   PREC   = normal    normal or accurate (medium, high low for compatibility)
   ISTART =      0    job   : 0-new  1-cont  2-samecut
   ICHARG =      2    charge: 1-file 2-atom 10-const
   ISPIN  =      1    spin polarized calculation?
   LNONCOLLINEAR =      F non collinear calculations
   LSORBIT =      F    spin-orbit coupling
   INIWAV =      1    electr: 0-lowe 1-rand  2-diag
   LASPH  =      F    aspherical Exc in radial PAW
   METAGGA=      F    non-selfconsistent MetaGGA calc.

 Electronic Relaxation 1
   ENCUT  =  400.0 eV  29.40 Ry    5.42 a.u.  24.46 24.46 24.46*2*pi/ulx,y,z
   ENINI  =  400.0     initial cutoff
   ENAUG  =  605.4 eV  augmentation charge cutoff
   NELM   =     60;   NELMIN=  2; NELMDL= -5     # of ELM steps 
   EDIFF  = 0.1E-03   stopping-criterion for ELM
   LREAL  =      F    real-space projection
   NLSPLINE    = F    spline interpolate recip. space projectors
   LCOMPAT=      F    compatible to vasp.4.4
   GGA_COMPAT  = T    GGA compatible to vasp.4.4-vasp.4.6
   LMAXPAW     = -100 max onsite density
   LMAXMIX     =    2 max onsite mixed and CHGCAR
   VOSKOWN=      0    Vosko Wilk Nusair interpolation
   ROPT   =    0.00000   0.00000
 Ionic relaxation
   EDIFFG = -.2E-01   stopping-criterion for IOM
   NSW    =     10    number of steps for IOM
   NBLOCK =      1;   KBLOCK =     10    inner block; outer block 
   IBRION =      1    ionic relax: 0-MD 1-quasi-New 2-CG
   NFREE  =      2    steps in history (QN), initial steepest desc. (CG)
   ISIF   =      2    stress and relaxation
   IWAVPR =     11    prediction:  0-non 1-charg 2-wave 3-comb
   ISYM   =      2    0-nonsym 1-usesym 2-fastsym
   LCORR  =      T    Harris-Foulkes like correction to forces

   POTIM  = 0.5000    time-step for ionic-motion
   TEIN   =    0.0    initial temperature
   TEBEG  =    0.0;   TEEND  =   0.0 temperature during run
   SMASS  =  -3.00    Nose mass-parameter (am)
   estimated Nose-frequenzy (Omega)   =  0.10E-29 period in steps =****** mass=  -0.514E-26a.u.
   SCALEE = 1.0000    scale energy and forces
   NPACO  =    256;   APACO  = 16.0  distance and # of slots for P.C.
   PSTRESS=    0.0 pullay stress

  Mass of Ions in am
   POMASS =  16.00  1.00
  Ionic Valenz
   ZVAL   =   6.00  1.00
  Atomic Wigner-Seitz radii
   RWIGS  =  -1.00 -1.00
  virtual crystal weights 
   VCA    =   1.00  1.00
   NELECT =       8.0000    total number of electrons
   NUPDOWN=      -1.0000    fix difference up-down

 DOS related values:
   EMIN   =  10.00;   EMAX   =-10.00  energy-range for DOS
   EFERMI =   0.00
   ISMEAR =     0;   SIGMA  =   0.10  broadening in eV -4-tet -1-fermi 0-gaus

 Electronic relaxation 2 (details)
   IALGO  =     38    algorithm
   LDIAG  =      T    sub-space diagonalisation (order eigenvalues)
   LSUBROT=      F    optimize rotation matrix (better conditioning)
   TURBO    =      0    0=normal 1=particle mesh
   IRESTART =      0    0=no restart 2=restart with 2 vectors
   NREBOOT  =      0    no. of reboots
   NMIN     =      0    reboot dimension
   EREF     =   0.00    reference energy to select bands
   IMIX   =      4    mixing-type and parameters
     AMIX     =   0.40;   BMIX     =  1.00
     AMIX_MAG =   1.60;   BMIX_MAG =  1.00
     AMIN     =   0.10
     WC   =   100.;   INIMIX=   1;  MIXPRE=   1;  MAXMIX= -45

 Intra band minimization:
   WEIMIN = 0.0010     energy-eigenvalue tresh-hold
   EBREAK =  0.31E-05  absolut break condition
   DEPER  =   0.30     relativ break condition  

   TIME   =   0.40     timestep for ELM

  volume/ion in A,a.u.               =    1125.00      7591.87
  Fermi-wavevector in a.u.,A,eV,Ry     =   0.218280  0.412489  0.648264  0.047646
  Thomas-Fermi vector in A             =   0.996232
 
 Write flags
   LWAVE  =      T    write WAVECAR
   LCHARG =      T    write CHGCAR
   LVTOT  =      F    write LOCPOT, total local potential
   LVHAR  =      F    write LOCPOT, Hartree potential only
   LELF   =      F    write electronic localiz. function (ELF)
   LORBIT =      0    0 simple, 1 ext, 2 COOP (PROOUT)


 Dipole corrections
   LMONO  =      F    monopole corrections only (constant potential shift)
   LDIPOL =      F    correct potential (dipole corrections)
   IDIPOL =      0    1-x, 2-y, 3-z, 4-all directions 
   EPSILON=  1.0000000 bulk dielectric constant

 Exchange correlation treatment:
   GGA     =    --    GGA type
   LEXCH   =     8    internal setting for exchange type
   VOSKOWN=      0    Vosko Wilk Nusair interpolation
   LHFCALC =     F    Hartree Fock is set to
   LHFONE  =     F    Hartree Fock one center treatment
   AEXX    =    0.0000 exact exchange contribution

 Linear response parameters
   LEPSILON=     F    determine dielectric tensor
   LRPA    =     F    only Hartree local field effects (RPA)
   LNABLA  =     F    use nabla operator in PAW spheres
   LVEL    =     F    velocity operator in full k-point grid
   LINTERFAST=   F  fast interpolation
   KINTER  =     0    interpolate to denser k-point grid
   CSHIFT  =0.1000    complex shift for real part using Kramers Kronig
   OMEGAMAX=  -1.0    maximum frequency
   DEG_THRESHOLD= 0.2000000E-02 threshold for treating states as degnerate
   RTIME   =    0.100 relaxation time in fs

 Orbital magnetization related:
   ORBITALMAG=     F  switch on orbital magnetization
   LCHIMAG   =     F  perturbation theory with respect to B field
   DQ        =  0.001000  dq finite difference perturbation B field



--------------------------------------------------------------------------------------------------------


 quasi-Newton-method for relaxation of ions
   using selective dynamics as specified on POSCAR
   WARNING: If single coordinates had been selected the selection of coordinates
            is made according to the corresponding   d i r e c t   coordinates!
            Don't support selection of single cartesian coordinates -- sorry ...
  !
 charge density and potential will be updated during run
 non-spin polarized calculation
 Variant of blocked Davidson
 Davidson routine will perform the subspace rotation
 perform sub-space diagonalisation
    after iterative eigenvector-optimisation
 modified Broyden-mixing scheme, WC =      100.0
 initial mixing is a Kerker type mixing with AMIX =  0.4000 and BMIX =      1.0000
 Hartree-type preconditioning will be used
 using additional bands            4
 reciprocal scheme for non local part
 calculate Harris-corrections to forces 
   (improved forces if not selfconsistent)
 use gradient corrections 
 use of overlap-Matrix (Vanderbilt PP)
 Gauss-broadening in eV      SIGMA  =   0.10


--------------------------------------------------------------------------------------------------------


  energy-cutoff  :      400.00
  volume of cell :     3375.00
      direct lattice vectors                 reciprocal lattice vectors
    15.000000000  0.000000000  0.000000000     0.066666667  0.000000000  0.000000000
     0.000000000 15.000000000  0.000000000     0.000000000  0.066666667  0.000000000
     0.000000000  0.000000000 15.000000000     0.000000000  0.000000000  0.066666667

  length of vectors
    15.000000000 15.000000000 15.000000000     0.066666667  0.066666667  0.066666667


 
 k-points in units of 2pi/SCALE and weight: Gamma-point only                        
   0.00000000  0.00000000  0.00000000       1.000
 
 k-points in reciprocal lattice and weights: Gamma-point only                        
   0.00000000  0.00000000  0.00000000       1.000
 
 position of ions in fractional coordinates (direct lattice) 
   0.00000000  0.00000000  0.00000000
   0.06666667  0.00000000  0.00000000
   0.96666667  0.04666667  0.00000000
 
 position of ions in cartesian coordinates  (Angst):
   0.00000000  0.00000000  0.00000000
   1.00000000  0.00000000  0.00000000
  14.50000000  0.70000000  0.00000000
 


--------------------------------------------------------------------------------------------------------


 k-point  1 :   0.0000 0.0000 0.0000  plane waves:   61445

 maximum and minimum number of plane-waves per node :     61445    61445

 maximum number of plane-waves:     61445
 maximum index in each direction: 
   IXMAX=   24   IYMAX=   24   IZMAX=   24
   IXMIN=  -24   IYMIN=  -24   IZMIN=  -24

 WARNING: aliasing errors must be expected set NGX to  98 to avoid them
 WARNING: aliasing errors must be expected set NGY to  98 to avoid them
 WARNING: aliasing errors must be expected set NGZ to  98 to avoid them
 aliasing errors are usually negligible using standard VASP settings
 and one can safely disregard these warnings

 serial   3D FFT for wavefunctions
 parallel 3D FFT for charge:
    minimum data exchange during FFTs selected (reduces bandwidth)


 total amount of memory used by VASP on root node   441796. kBytes
========================================================================

   base      :      30000. kBytes
   nonl-proj :      10814. kBytes
   fftplans  :     141100. kBytes
   grid      :     252006. kBytes
   one-center:          9. kBytes
   wavefun   :       7867. kBytes
 
     INWAV:  cpu time    0.00: real time    0.00
 Broyden mixing: mesh for mixing (old mesh)
   NGX = 49   NGY = 49   NGZ = 49
  (NGX  =160   NGY  =160   NGZ  =160)
  gives a total of 117649 points

 initial charge density was supplied:
 charge density of overlapping atoms calculated
 number of electron       8.0000000 magnetization 
 keeping initial charge density in first step


--------------------------------------------------------------------------------------------------------


 Maximum index for augmentation-charges         1935 (set IRDMAX)


--------------------------------------------------------------------------------------------------------


 First call to EWALD:  gamma=   0.118
 Maximum number of real-space cells 3x 3x 3
 Maximum number of reciprocal cells 3x 3x 3

 FEWALD executed in parallel
    FEWALD:  cpu time    0.00: real time    0.00


----------------------------------------- Iteration    1(   1)  ---------------------------------------


    POTLOK:  cpu time    2.73: real time    2.74
    SETDIJ:  cpu time    0.00: real time    0.00
     EDDAV:  cpu time    0.77: real time    0.77
       DOS:  cpu time    0.00: real time    0.00
    --------------------------------------------
      LOOP:  cpu time    3.51: real time    3.51

 eigenvalue-minimisations  :    16
 total energy-change (2. order) : 0.8341761E+02  (-0.1007683E+03)
 number of electron       8.0000000 magnetization 
 augmentation part        8.0000000 magnetization 

 Free energy of the ion-electron system (eV)
  ---------------------------------------------------
  alpha Z        PSCENC =         0.06643638
  Ewald energy   TEWEN  =       108.49216011
  -Hartree energ DENC   =      -462.43096677
  -exchange      EXHF   =         0.00000000
  -V(xc)+E(xc)   XCENC  =        32.38310918
  PAW double counting   =       247.56105404     -249.42875511
  entropy T*S    EENTRO =        -0.03835342
  eigenvalues    EBANDS =       -50.40753987
  atomic energy  EATOM  =       457.22046137
  ---------------------------------------------------
  free energy    TOTEN  =        83.41760591 eV

  energy without entropy =       83.45595932  energy(sigma->0) =       83.43678262


--------------------------------------------------------------------------------------------------------




----------------------------------------- Iteration    1(   2)  ---------------------------------------


     EDDAV:  cpu time    1.29: real time    1.30
       DOS:  cpu time    0.00: real time    0.00
    --------------------------------------------
      LOOP:  cpu time    1.29: real time    1.30

 eigenvalue-minimisations  :    32
 total energy-change (2. order) :-0.6173292E+02  (-0.6148692E+02)
 number of electron       8.0000000 magnetization 
 augmentation part        8.0000000 magnetization 

 Free energy of the ion-electron system (eV)
  ---------------------------------------------------
  alpha Z        PSCENC =         0.06643638
  Ewald energy   TEWEN  =       108.49216011
  -Hartree energ DENC   =      -462.43096677
  -exchange      EXHF   =         0.00000000
  -V(xc)+E(xc)   XCENC  =        32.38310918
  PAW double counting   =       247.56105404     -249.42875511
  entropy T*S    EENTRO =        -0.00000000
  eigenvalues    EBANDS =      -112.17881074
  atomic energy  EATOM  =       457.22046137
  ---------------------------------------------------
  free energy    TOTEN  =        21.68468845 eV

  energy without entropy =       21.68468845  energy(sigma->0) =       21.68468845


--------------------------------------------------------------------------------------------------------




----------------------------------------- Iteration    1(   3)  ---------------------------------------


     EDDAV:  cpu time    1.02: real time    1.02
       DOS:  cpu time    0.00: real time    0.00
    --------------------------------------------
      LOOP:  cpu time    1.02: real time    1.02

 eigenvalue-minimisations  :    24
 total energy-change (2. order) :-0.3487479E+02  (-0.3487479E+02)
 number of electron       8.0000000 magnetization 
 augmentation part        8.0000000 magnetization 

 Free energy of the ion-electron system (eV)
  ---------------------------------------------------
  alpha Z        PSCENC =         0.06643638
  Ewald energy   TEWEN  =       108.49216011
  -Hartree energ DENC   =      -462.43096677
  -exchange      EXHF   =         0.00000000
  -V(xc)+E(xc)   XCENC  =        32.38310918
  PAW double counting   =       247.56105404     -249.42875511
  entropy T*S    EENTRO =        -0.00000000
  eigenvalues    EBANDS =      -147.05360357
  atomic energy  EATOM  =       457.22046137
  ---------------------------------------------------
  free energy    TOTEN  =       -13.19010438 eV

  energy without entropy =      -13.19010438  energy(sigma->0) =      -13.19010438


--------------------------------------------------------------------------------------------------------




----------------------------------------- Iteration    1(   4)  ---------------------------------------


     EDDAV:  cpu time    0.76: real time    0.76
       DOS:  cpu time    0.00: real time    0.00
    --------------------------------------------
      LOOP:  cpu time    0.76: real time    0.76

 eigenvalue-minimisations  :    16
 total energy-change (2. order) :-0.2831988E+01  (-0.2831988E+01)
 number of electron       8.0000000 magnetization 
 augmentation part        8.0000000 magnetization 

 Free energy of the ion-electron system (eV)
  ---------------------------------------------------
  alpha Z        PSCENC =         0.06643638
  Ewald energy   TEWEN  =       108.49216011
  -Hartree energ DENC   =      -462.43096677
  -exchange      EXHF   =         0.00000000
  -V(xc)+E(xc)   XCENC  =        32.38310918
  PAW double counting   =       247.56105404     -249.42875511
  entropy T*S    EENTRO =        -0.00000000
  eigenvalues    EBANDS =      -149.88559124
  atomic energy  EATOM  =       457.22046137
  ---------------------------------------------------
  free energy    TOTEN  =       -16.02209204 eV

  energy without entropy =      -16.02209204  energy(sigma->0) =      -16.02209204


--------------------------------------------------------------------------------------------------------




----------------------------------------- Iteration    1(   5)  ---------------------------------------


     EDDAV:  cpu time    1.02: real time    1.02
       DOS:  cpu time    0.00: real time    0.00
    CHARGE:  cpu time    0.21: real time    0.21
    MIXING:  cpu time    0.09: real time    0.09
    --------------------------------------------
      LOOP:  cpu time    1.32: real time    1.32

 eigenvalue-minimisations  :    24
 total energy-change (2. order) :-0.2411321E-01  (-0.2411321E-01)
 number of electron       7.9999919 magnetization 
 augmentation part        0.8785169 magnetization 

 Broyden mixing:
  rms(total) = 0.84692E+00    rms(broyden)= 0.84508E+00
  rms(prec ) = 0.98825E+00
  weight for this iteration     100.00

 Free energy of the ion-electron system (eV)
  ---------------------------------------------------
  alpha Z        PSCENC =         0.06643638
  Ewald energy   TEWEN  =       108.49216011
  -Hartree energ DENC   =      -462.43096677
  -exchange      EXHF   =         0.00000000
  -V(xc)+E(xc)   XCENC  =        32.38310918
  PAW double counting   =       247.56105404     -249.42875511
  entropy T*S    EENTRO =        -0.00000000
  eigenvalues    EBANDS =      -149.90970445
  atomic energy  EATOM  =       457.22046137
  ---------------------------------------------------
  free energy    TOTEN  =       -16.04620526 eV

  energy without entropy =      -16.04620526  energy(sigma->0) =      -16.04620526


--------------------------------------------------------------------------------------------------------




----------------------------------------- Iteration    1(   6)  ---------------------------------------


    POTLOK:  cpu time    2.53: real time    2.53
    SETDIJ:  cpu time    0.00: real time    0.00
     EDDAV:  cpu time    0.76: real time    0.77
       DOS:  cpu time    0.00: real time    0.00
    CHARGE:  cpu time    0.20: real time    0.20
    MIXING:  cpu time    0.09: real time    0.09
    --------------------------------------------
      LOOP:  cpu time    3.59: real time    3.60

 eigenvalue-minimisations  :    16
 total energy-change (2. order) : 0.2287549E+01  (-0.1046133E+01)
 number of electron       7.9999933 magnetization 
 augmentation part        0.7412589 magnetization 

 Broyden mixing:
  rms(total) = 0.30143E+00    rms(broyden)= 0.30084E+00
  rms(prec ) = 0.33444E+00
  weight for this iteration     100.00

 eigenvalues of (default mixing * dielectric matrix)
  average eigenvalue GAMMA=   0.9491
  0.9491

 Free energy of the ion-electron system (eV)
  ---------------------------------------------------
  alpha Z        PSCENC =         0.06643638
  Ewald energy   TEWEN  =       108.49216011
  -Hartree energ DENC   =      -488.71953619
  -exchange      EXHF   =         0.00000000
  -V(xc)+E(xc)   XCENC  =        33.85318106
  PAW double counting   =       310.00230056     -312.29743488
  entropy T*S    EENTRO =        -0.00000000
  eigenvalues    EBANDS =      -122.37622439
  atomic energy  EATOM  =       457.22046137
  ---------------------------------------------------
  free energy    TOTEN  =       -13.75865598 eV

  energy without entropy =      -13.75865598  energy(sigma->0) =      -13.75865598


--------------------------------------------------------------------------------------------------------




----------------------------------------- Iteration    1(   7)  ---------------------------------------


    POTLOK:  cpu time    2.88: real time    2.89
    SETDIJ:  cpu time    0.00: real time    0.00
     EDDAV:  cpu time    1.07: real time    1.07
       DOS:  cpu time    0.00: real time    0.00
    CHARGE:  cpu time    0.20: real time    0.20
    MIXING:  cpu time    0.09: real time    0.09
    --------------------------------------------
      LOOP:  cpu time    4.25: real time    4.26

 eigenvalue-minimisations  :    24
 total energy-change (2. order) : 0.1116678E+00  (-0.2326359E-01)
 number of electron       7.9999934 magnetization 
 augmentation part        0.7312716 magnetization 

 Broyden mixing:
  rms(total) = 0.19505E+00    rms(broyden)= 0.19501E+00
  rms(prec ) = 0.21568E+00
  weight for this iteration     100.00

 eigenvalues of (default mixing * dielectric matrix)
  average eigenvalue GAMMA=   1.7310
  1.0866  2.3754

 Free energy of the ion-electron system (eV)
  ---------------------------------------------------
  alpha Z        PSCENC =         0.06643638
  Ewald energy   TEWEN  =       108.49216011
  -Hartree energ DENC   =      -493.36232436
  -exchange      EXHF   =         0.00000000
  -V(xc)+E(xc)   XCENC  =        34.09241722
  PAW double counting   =       327.07683204     -329.37560606
  entropy T*S    EENTRO =        -0.00000000
  eigenvalues    EBANDS =      -117.85736486
  atomic energy  EATOM  =       457.22046137
  ---------------------------------------------------
  free energy    TOTEN  =       -13.64698816 eV

  energy without entropy =      -13.64698816  energy(sigma->0) =      -13.64698816


--------------------------------------------------------------------------------------------------------




----------------------------------------- Iteration    1(   8)  ---------------------------------------


    POTLOK:  cpu time    2.59: real time    2.60
    SETDIJ:  cpu time    0.00: real time    0.00
     EDDAV:  cpu time    1.31: real time    1.31
       DOS:  cpu time    0.00: real time    0.00
    CHARGE:  cpu time    0.20: real time    0.20
    MIXING:  cpu time    0.10: real time    0.10
    --------------------------------------------
      LOOP:  cpu time    4.20: real time    4.21

 eigenvalue-minimisations  :    32
 total energy-change (2. order) : 0.7292655E-01  (-0.6923512E-02)
 number of electron       7.9999934 magnetization 
 augmentation part        0.7311892 magnetization 

 Broyden mixing:
  rms(total) = 0.20388E-01    rms(broyden)= 0.20379E-01
  rms(prec ) = 0.35163E-01
  weight for this iteration     100.00

 eigenvalues of (default mixing * dielectric matrix)
  average eigenvalue GAMMA=   1.5197
  2.3765  1.0913  1.0913

 Free energy of the ion-electron system (eV)
  ---------------------------------------------------
  alpha Z        PSCENC =         0.06643638
  Ewald energy   TEWEN  =       108.49216011
  -Hartree energ DENC   =      -498.31216061
  -exchange      EXHF   =         0.00000000
  -V(xc)+E(xc)   XCENC  =        34.35671189
  PAW double counting   =       348.42102050     -350.70560549
  entropy T*S    EENTRO =        -0.00000000
  eigenvalues    EBANDS =      -113.11308577
  atomic energy  EATOM  =       457.22046137
  ---------------------------------------------------
  free energy    TOTEN  =       -13.57406161 eV

  energy without entropy =      -13.57406161  energy(sigma->0) =      -13.57406161


--------------------------------------------------------------------------------------------------------




----------------------------------------- Iteration    1(   9)  ---------------------------------------


    POTLOK:  cpu time    2.58: real time    2.59
    SETDIJ:  cpu time    0.00: real time    0.00
     EDDAV:  cpu time    0.77: real time    0.77
       DOS:  cpu time    0.00: real time    0.00
    CHARGE:  cpu time    0.20: real time    0.20
    MIXING:  cpu time    0.10: real time    0.10
    --------------------------------------------
      LOOP:  cpu time    3.66: real time    3.67

 eigenvalue-minimisations  :    16
 total energy-change (2. order) :-0.8628330E-03  (-0.8310878E-03)
 number of electron       7.9999934 magnetization 
 augmentation part        0.7276443 magnetization 

 Broyden mixing:
  rms(total) = 0.15126E-01    rms(broyden)= 0.15118E-01
  rms(prec ) = 0.26043E-01
  weight for this iteration     100.00

 eigenvalues of (default mixing * dielectric matrix)
  average eigenvalue GAMMA=   1.8502
  0.9996  0.9996  2.7009  2.7009

 Free energy of the ion-electron system (eV)
  ---------------------------------------------------
  alpha Z        PSCENC =         0.06643638
  Ewald energy   TEWEN  =       108.49216011
  -Hartree energ DENC   =      -499.33815323
  -exchange      EXHF   =         0.00000000
  -V(xc)+E(xc)   XCENC  =        34.39944732
  PAW double counting   =       348.62832467     -350.91876867
  entropy T*S    EENTRO =        -0.00000000
  eigenvalues    EBANDS =      -112.12483239
  atomic energy  EATOM  =       457.22046137
  ---------------------------------------------------
  free energy    TOTEN  =       -13.57492445 eV

  energy without entropy =      -13.57492445  energy(sigma->0) =      -13.57492445


--------------------------------------------------------------------------------------------------------




----------------------------------------- Iteration    1(  10)  ---------------------------------------


    POTLOK:  cpu time    2.58: real time    2.59
    SETDIJ:  cpu time    0.00: real time    0.00
     EDDAV:  cpu time    0.76: real time    0.77
       DOS:  cpu time    0.00: real time    0.00
    CHARGE:  cpu time    0.20: real time    0.20
    MIXING:  cpu time    0.10: real time    0.11
    --------------------------------------------
      LOOP:  cpu time    3.66: real time    3.66

 eigenvalue-minimisations  :    16
 total energy-change (2. order) :-0.5340851E-02  (-0.4271436E-03)
 number of electron       7.9999934 magnetization 
 augmentation part        0.7283744 magnetization 

 Broyden mixing:
  rms(total) = 0.70000E-02    rms(broyden)= 0.69961E-02
  rms(prec ) = 0.12191E-01
  weight for this iteration     100.00

 eigenvalues of (default mixing * dielectric matrix)
  average eigenvalue GAMMA=   1.7116
  3.0460  2.3445  0.9981  0.9981  1.1710

 Free energy of the ion-electron system (eV)
  ---------------------------------------------------
  alpha Z        PSCENC =         0.06643638
  Ewald energy   TEWEN  =       108.49216011
  -Hartree energ DENC   =      -500.16133172
  -exchange      EXHF   =         0.00000000
  -V(xc)+E(xc)   XCENC  =        34.40793045
  PAW double counting   =       345.37376344     -347.65556856
  entropy T*S    EENTRO =        -0.00000000
  eigenvalues    EBANDS =      -111.32411676
  atomic energy  EATOM  =       457.22046137
  ---------------------------------------------------
  free energy    TOTEN  =       -13.58026530 eV

  energy without entropy =      -13.58026530  energy(sigma->0) =      -13.58026530


--------------------------------------------------------------------------------------------------------




----------------------------------------- Iteration    1(  11)  ---------------------------------------


    POTLOK:  cpu time    2.58: real time    2.58
    SETDIJ:  cpu time    0.00: real time    0.00
     EDDAV:  cpu time    1.04: real time    1.04
       DOS:  cpu time    0.00: real time    0.00
    CHARGE:  cpu time    0.19: real time    0.19
    MIXING:  cpu time    0.11: real time    0.11
    --------------------------------------------
      LOOP:  cpu time    3.92: real time    3.94

 eigenvalue-minimisations  :    24
 total energy-change (2. order) :-0.3112111E-02  (-0.1855492E-03)
 number of electron       7.9999935 magnetization 
 augmentation part        0.7267497 magnetization 

 Broyden mixing:
  rms(total) = 0.49935E-02    rms(broyden)= 0.49871E-02
  rms(prec ) = 0.92471E-02
  weight for this iteration     100.00

 eigenvalues of (default mixing * dielectric matrix)
  average eigenvalue GAMMA=   1.9125
  3.6605  2.7487  1.8988  1.2177  0.9746  0.9746

 Free energy of the ion-electron system (eV)
  ---------------------------------------------------
  alpha Z        PSCENC =         0.06643638
  Ewald energy   TEWEN  =       108.49216011
  -Hartree energ DENC   =      -500.61325729
  -exchange      EXHF   =         0.00000000
  -V(xc)+E(xc)   XCENC  =        34.42586227
  PAW double counting   =       346.52851230     -348.81461093
  entropy T*S    EENTRO =        -0.00000000
  eigenvalues    EBANDS =      -110.88894162
  atomic energy  EATOM  =       457.22046137
  ---------------------------------------------------
  free energy    TOTEN  =       -13.58337741 eV

  energy without entropy =      -13.58337741  energy(sigma->0) =      -13.58337741


--------------------------------------------------------------------------------------------------------




----------------------------------------- Iteration    1(  12)  ---------------------------------------


    POTLOK:  cpu time    2.56: real time    2.56
    SETDIJ:  cpu time    0.00: real time    0.00
     EDDAV:  cpu time    0.77: real time    0.77
       DOS:  cpu time    0.00: real time    0.00
    CHARGE:  cpu time    0.19: real time    0.19
    MIXING:  cpu time    0.11: real time    0.11
    --------------------------------------------
      LOOP:  cpu time    3.64: real time    3.65

 eigenvalue-minimisations  :    16
 total energy-change (2. order) :-0.4593299E-02  (-0.1598031E-03)
 number of electron       7.9999934 magnetization 
 augmentation part        0.7276563 magnetization 

 Broyden mixing:
  rms(total) = 0.25486E-02    rms(broyden)= 0.25464E-02
  rms(prec ) = 0.47475E-02
  weight for this iteration     100.00

 eigenvalues of (default mixing * dielectric matrix)
  average eigenvalue GAMMA=   1.8872
  4.1142  2.5066  2.3660  1.1497  1.1497  0.9621  0.9621

 Free energy of the ion-electron system (eV)
  ---------------------------------------------------
  alpha Z        PSCENC =         0.06643638
  Ewald energy   TEWEN  =       108.49216011
  -Hartree energ DENC   =      -500.59056980
  -exchange      EXHF   =         0.00000000
  -V(xc)+E(xc)   XCENC  =        34.40939685
  PAW double counting   =       345.69801340     -347.98082981
  entropy T*S    EENTRO =        -0.00000000
  eigenvalues    EBANDS =      -110.90303922
  atomic energy  EATOM  =       457.22046137
  ---------------------------------------------------
  free energy    TOTEN  =       -13.58797071 eV

  energy without entropy =      -13.58797071  energy(sigma->0) =      -13.58797071


--------------------------------------------------------------------------------------------------------




----------------------------------------- Iteration    1(  13)  ---------------------------------------


    POTLOK:  cpu time    2.55: real time    2.55
    SETDIJ:  cpu time    0.00: real time    0.00
     EDDAV:  cpu time    1.31: real time    1.31
       DOS:  cpu time    0.00: real time    0.00
    CHARGE:  cpu time    0.19: real time    0.19
    MIXING:  cpu time    0.12: real time    0.12
    --------------------------------------------
      LOOP:  cpu time    4.17: real time    4.18

 eigenvalue-minimisations  :    32
 total energy-change (2. order) :-0.1762863E-02  (-0.3090358E-04)
 number of electron       7.9999934 magnetization 
 augmentation part        0.7271689 magnetization 

 Broyden mixing:
  rms(total) = 0.17209E-02    rms(broyden)= 0.17198E-02
  rms(prec ) = 0.32407E-02
  weight for this iteration     100.00

 eigenvalues of (default mixing * dielectric matrix)
  average eigenvalue GAMMA=   2.1599
  5.6306  3.2507  2.4472  1.8576  1.1950  0.9908  0.9908  0.9169

 Free energy of the ion-electron system (eV)
  ---------------------------------------------------
  alpha Z        PSCENC =         0.06643638
  Ewald energy   TEWEN  =       108.49216011
  -Hartree energ DENC   =      -500.73246836
  -exchange      EXHF   =         0.00000000
  -V(xc)+E(xc)   XCENC  =        34.41355571
  PAW double counting   =       346.17113767     -348.45509470
  entropy T*S    EENTRO =        -0.00000000
  eigenvalues    EBANDS =      -110.76592174
  atomic energy  EATOM  =       457.22046137
  ---------------------------------------------------
  free energy    TOTEN  =       -13.58973357 eV

  energy without entropy =      -13.58973357  energy(sigma->0) =      -13.58973357


--------------------------------------------------------------------------------------------------------




----------------------------------------- Iteration    1(  14)  ---------------------------------------


    POTLOK:  cpu time    2.50: real time    2.51
    SETDIJ:  cpu time    0.00: real time    0.00
     EDDAV:  cpu time    0.77: real time    0.77
       DOS:  cpu time    0.00: real time    0.00
    CHARGE:  cpu time    0.19: real time    0.19
    MIXING:  cpu time    0.12: real time    0.12
    --------------------------------------------
      LOOP:  cpu time    3.59: real time    3.60

 eigenvalue-minimisations  :    16
 total energy-change (2. order) :-0.1784195E-02  (-0.2430723E-04)
 number of electron       7.9999934 magnetization 
 augmentation part        0.7272929 magnetization 

 Broyden mixing:
  rms(total) = 0.76733E-03    rms(broyden)= 0.76713E-03
  rms(prec ) = 0.14888E-02
  weight for this iteration     100.00

 eigenvalues of (default mixing * dielectric matrix)
  average eigenvalue GAMMA=   2.2418
  6.4520  3.5539  2.5354  2.0363  1.5465  1.0923  1.0301  0.9651  0.9651

 Free energy of the ion-electron system (eV)
  ---------------------------------------------------
  alpha Z        PSCENC =         0.06643638
  Ewald energy   TEWEN  =       108.49216011
  -Hartree energ DENC   =      -500.72605659
  -exchange      EXHF   =         0.00000000
  -V(xc)+E(xc)   XCENC  =        34.40880189
  PAW double counting   =       346.14791918     -348.43141634
  entropy T*S    EENTRO =        -0.00000000
  eigenvalues    EBANDS =      -110.76982376
  atomic energy  EATOM  =       457.22046137
  ---------------------------------------------------
  free energy    TOTEN  =       -13.59151777 eV

  energy without entropy =      -13.59151777  energy(sigma->0) =      -13.59151777


--------------------------------------------------------------------------------------------------------




----------------------------------------- Iteration    1(  15)  ---------------------------------------


    POTLOK:  cpu time    2.47: real time    2.47
    SETDIJ:  cpu time    0.00: real time    0.00
     EDDAV:  cpu time    1.03: real time    1.03
       DOS:  cpu time    0.00: real time    0.00
    CHARGE:  cpu time    0.19: real time    0.19
    MIXING:  cpu time    0.13: real time    0.13
    --------------------------------------------
      LOOP:  cpu time    3.82: real time    3.83

 eigenvalue-minimisations  :    24
 total energy-change (2. order) :-0.7939166E-03  (-0.7845131E-05)
 number of electron       7.9999934 magnetization 
 augmentation part        0.7272843 magnetization 

 Broyden mixing:
  rms(total) = 0.42090E-03    rms(broyden)= 0.42063E-03
  rms(prec ) = 0.73609E-03
  weight for this iteration     100.00

 eigenvalues of (default mixing * dielectric matrix)
  average eigenvalue GAMMA=   2.4537
  7.9720  4.1735  2.9209  2.4913  1.8218  1.2772  1.0407  0.9696  0.9696  0.9004

 Free energy of the ion-electron system (eV)
  ---------------------------------------------------
  alpha Z        PSCENC =         0.06643638
  Ewald energy   TEWEN  =       108.49216011
  -Hartree energ DENC   =      -500.70748399
  -exchange      EXHF   =         0.00000000
  -V(xc)+E(xc)   XCENC  =        34.40685951
  PAW double counting   =       346.05243337     -348.33565906
  entropy T*S    EENTRO =        -0.00000000
  eigenvalues    EBANDS =      -110.78751937
  atomic energy  EATOM  =       457.22046137
  ---------------------------------------------------
  free energy    TOTEN  =       -13.59231168 eV

  energy without entropy =      -13.59231168  energy(sigma->0) =      -13.59231168


--------------------------------------------------------------------------------------------------------




----------------------------------------- Iteration    1(  16)  ---------------------------------------


    POTLOK:  cpu time    2.42: real time    2.43
    SETDIJ:  cpu time    0.00: real time    0.00
     EDDAV:  cpu time    1.30: real time    1.31
       DOS:  cpu time    0.00: real time    0.00
    CHARGE:  cpu time    0.20: real time    0.20
    MIXING:  cpu time    0.14: real time    0.14
    --------------------------------------------
      LOOP:  cpu time    4.07: real time    4.08

 eigenvalue-minimisations  :    32
 total energy-change (2. order) :-0.2807716E-03  (-0.1428491E-05)
 number of electron       7.9999934 magnetization 
 augmentation part        0.7273040 magnetization 

 Broyden mixing:
  rms(total) = 0.25744E-03    rms(broyden)= 0.25732E-03
  rms(prec ) = 0.38749E-03
  weight for this iteration     100.00

 eigenvalues of (default mixing * dielectric matrix)
  average eigenvalue GAMMA=   2.5813
  8.6466  4.8068  3.2040  2.4076  2.4076  1.8388  1.1819  1.0391  0.9791  0.9791
  0.9041

 Free energy of the ion-electron system (eV)
  ---------------------------------------------------
  alpha Z        PSCENC =         0.06643638
  Ewald energy   TEWEN  =       108.49216011
  -Hartree energ DENC   =      -500.70148907
  -exchange      EXHF   =         0.00000000
  -V(xc)+E(xc)   XCENC  =        34.40597293
  PAW double counting   =       345.97191546     -348.25493484
  entropy T*S    EENTRO =        -0.00000000
  eigenvalues    EBANDS =      -110.79311479
  atomic energy  EATOM  =       457.22046137
  ---------------------------------------------------
  free energy    TOTEN  =       -13.59259245 eV

  energy without entropy =      -13.59259245  energy(sigma->0) =      -13.59259245


--------------------------------------------------------------------------------------------------------




----------------------------------------- Iteration    1(  17)  ---------------------------------------


    POTLOK:  cpu time    2.40: real time    2.40
    SETDIJ:  cpu time    0.00: real time    0.00
     EDDAV:  cpu time    1.30: real time    1.31
       DOS:  cpu time    0.00: real time    0.00
    CHARGE:  cpu time    0.20: real time    0.20
    MIXING:  cpu time    0.14: real time    0.14
    --------------------------------------------
      LOOP:  cpu time    4.05: real time    4.06

 eigenvalue-minimisations  :    32
 total energy-change (2. order) :-0.1191334E-03  (-0.3944302E-06)
 number of electron       7.9999934 magnetization 
 augmentation part        0.7272791 magnetization 

 Broyden mixing:
  rms(total) = 0.15060E-03    rms(broyden)= 0.15055E-03
  rms(prec ) = 0.19960E-03
  weight for this iteration     100.00

 eigenvalues of (default mixing * dielectric matrix)
  average eigenvalue GAMMA=   2.5663
  8.9347  5.1150  3.3156  2.8204  2.4206  1.8515  1.3569  1.1016  0.9892  0.9892
  0.9914  0.9096

 Free energy of the ion-electron system (eV)
  ---------------------------------------------------
  alpha Z        PSCENC =         0.06643638
  Ewald energy   TEWEN  =       108.49216011
  -Hartree energ DENC   =      -500.70546187
  -exchange      EXHF   =         0.00000000
  -V(xc)+E(xc)   XCENC  =        34.40609591
  PAW double counting   =       346.01877439     -348.30188868
  entropy T*S    EENTRO =        -0.00000000
  eigenvalues    EBANDS =      -110.78928921
  atomic energy  EATOM  =       457.22046137
  ---------------------------------------------------
  free energy    TOTEN  =       -13.59271159 eV

  energy without entropy =      -13.59271159  energy(sigma->0) =      -13.59271159


--------------------------------------------------------------------------------------------------------




----------------------------------------- Iteration    1(  18)  ---------------------------------------


    POTLOK:  cpu time    2.41: real time    2.42
    SETDIJ:  cpu time    0.00: real time    0.00
     EDDAV:  cpu time    1.30: real time    1.31
       DOS:  cpu time    0.00: real time    0.00
    --------------------------------------------
      LOOP:  cpu time    3.72: real time    3.73

 eigenvalue-minimisations  :    32
 total energy-change (2. order) :-0.2901049E-04  (-0.8613445E-07)
 number of electron       7.9999934 magnetization 
 augmentation part        0.7272791 magnetization 

 Free energy of the ion-electron system (eV)
  ---------------------------------------------------
  alpha Z        PSCENC =         0.06643638
  Ewald energy   TEWEN  =       108.49216011
  -Hartree energ DENC   =      -500.70142123
  -exchange      EXHF   =         0.00000000
  -V(xc)+E(xc)   XCENC  =        34.40579463
  PAW double counting   =       346.01686248     -348.29993817
  entropy T*S    EENTRO =        -0.00000000
  eigenvalues    EBANDS =      -110.79309616
  atomic energy  EATOM  =       457.22046137
  ---------------------------------------------------
  free energy    TOTEN  =       -13.59274060 eV

  energy without entropy =      -13.59274060  energy(sigma->0) =      -13.59274060


--------------------------------------------------------------------------------------------------------




 average (electrostatic) potential at core
  the test charge radii are     0.7215  0.5201
  (the norm of the test charge is              1.0000)
       1 -80.5296       2 -44.4684       3 -46.8075
 
 
 
 E-fermi :  -6.6645     XC(G=0):  -0.2205     alpha+bet : -0.0386


 k-point     1 :       0.0000    0.0000    0.0000
  band No.  band energies     occupation 
      1     -25.4964      2.00000
      2     -14.3717      2.00000
      3      -8.3391      2.00000
      4      -7.1894      2.00000
      5      -0.8741      0.00000
      6       0.0616      0.00000
      7       0.3451      0.00000
      8       0.5223      0.00000


--------------------------------------------------------------------------------------------------------


 soft charge-density along one line, spin component           1
         0         1         2         3         4         5         6         7         8         9
 total charge-density along one line
 
 pseudopotential strength for first ion, spin component:           1
 13.813  -0.527  -0.115  -0.000  -0.025   0.006   0.000   0.001
 -0.527   0.119   0.014   0.000   0.004  -0.002  -0.000  -0.001
 -0.115   0.014 -10.471  -0.000   0.102   0.271   0.000  -0.016
 -0.000   0.000  -0.000 -10.314   0.000   0.000   0.245  -0.000
 -0.025   0.004   0.102   0.000 -10.562  -0.016  -0.000   0.287
  0.006  -0.002   0.271   0.000  -0.016   0.134  -0.000   0.005
  0.000  -0.000   0.000   0.245  -0.000  -0.000   0.141   0.000
  0.001  -0.001  -0.016  -0.000   0.287   0.005   0.000   0.129
 total augmentation occupancy for first ion, spin component:           1
  1.824   0.250  -0.106   0.000  -0.095   0.055   0.000   0.004
  0.250   0.052   0.147   0.000   0.042   0.027   0.000   0.004
 -0.106   0.147   1.675   0.000   0.055   0.217   0.000  -0.061
  0.000   0.000   0.000   1.810   0.000   0.000   0.119   0.000
 -0.095   0.042   0.055   0.000   1.455  -0.061   0.000   0.275
  0.055   0.027   0.217   0.000  -0.061   0.034   0.000  -0.020
  0.000   0.000   0.000   0.119   0.000   0.000   0.008   0.000
  0.004   0.004  -0.061   0.000   0.275  -0.020   0.000   0.055


------------------------ aborting loop because EDIFF is reached ----------------------------------------


    CHARGE:  cpu time    0.20: real time    0.20
    FORLOC:  cpu time    0.28: real time    0.28
    FORNL :  cpu time    0.10: real time    0.10
    STRESS:  cpu time    0.75: real time    0.75
    FORHAR:  cpu time    0.88: real time    0.88
    MIXING:  cpu time    0.15: real time    0.15
    OFIELD:  cpu time    0.00: real time    0.00

  FORCE on cell =-STRESS in cart. coord.  units (eV):
  Direction    XX          YY          ZZ          XY          YZ          ZX
  --------------------------------------------------------------------------------------
  Alpha Z     0.06644     0.06644     0.06644
  Ewald      98.58004    39.02523   -29.11314   -50.75228     0.00000    -0.00000
  Hartree   178.55609   166.07139   156.08202    -7.80168    -0.00000    -0.00000
  E(xc)     -36.20544   -36.50173   -36.74819    -0.19770     0.00000     0.00000
  Local    -349.80412  -291.46142  -236.65487    42.92760    -0.00000     0.00000
  n-local   -31.72004   -32.63709   -32.04170     0.45459     0.00000     0.00000
  augment     6.00385     7.00491     8.40015     0.85316    -0.00000     0.00000
  Kinetic   133.71449   152.72924   169.14109    11.91461    -0.00000    -0.00000
  Fock        0.00000     0.00000     0.00000     0.00000     0.00000     0.00000
  -------------------------------------------------------------------------------------
  Total      -0.80868     4.29697    -0.86820    -2.60169     0.00000     0.00000
  in kB      -0.38389     2.03986    -0.41215    -1.23507     0.00000     0.00000
  external pressure =        0.41 kB  Pullay stress =        0.00 kB


 VOLUME and BASIS-vectors are now :
 -----------------------------------------------------------------------------
  energy-cutoff  :      400.00
  volume of cell :     3375.00
      direct lattice vectors                 reciprocal lattice vectors
    15.000000000  0.000000000  0.000000000     0.066666667  0.000000000  0.000000000
     0.000000000 15.000000000  0.000000000     0.000000000  0.066666667  0.000000000
     0.000000000  0.000000000 15.000000000     0.000000000  0.000000000  0.066666667

  length of vectors
    15.000000000 15.000000000 15.000000000     0.066666667  0.066666667  0.066666667


 FORCES acting on ions
    electron-ion (+dipol)            ewald-force                    non-local-force                 convergence-correction
 -----------------------------------------------------------------------------------------------
   0.851E+01 0.475E+02 -.238E-14   -.185E+02 -.949E+02 0.101E-16   0.155E+02 0.392E+02 0.000E+00   0.897E-03 0.945E-03 -.654E-13
   -.855E+02 0.276E+01 0.374E-06   0.910E+02 -.221E+01 -.131E-17   -.748E+01 0.519E+00 0.000E+00   0.630E-03 0.466E-04 -.727E-14
   0.612E+02 -.802E+02 -.578E-07   -.725E+02 0.971E+02 -.327E-17   0.773E+01 -.969E+01 0.000E+00   -.278E-03 0.602E-03 -.760E-14
 -----------------------------------------------------------------------------------------------
   -.158E+02 -.300E+02 0.316E-06   0.000E+00 0.000E+00 0.551E-17   0.158E+02 0.300E+02 0.000E+00   0.125E-02 0.159E-02 -.803E-13
 
 
 POSITION                                       TOTAL-FORCE (eV/Angst)
 -----------------------------------------------------------------------------------
      0.00000      0.00000      0.00000         5.576694     -8.322412      0.000000
      1.00000      0.00000      0.00000        -1.932915      1.073768      0.000000
     14.50000      0.70000      0.00000        -3.643779      7.248644      0.000000
 -----------------------------------------------------------------------------------
    total drift:                               -0.000829     -0.000783      0.000000


--------------------------------------------------------------------------------------------------------



  FREE ENERGIE OF THE ION-ELECTRON SYSTEM (eV)
  ---------------------------------------------------
  free  energy   TOTEN  =       -13.59274060 eV

  energy  without entropy=      -13.59274060  energy(sigma->0) =      -13.59274060
 


--------------------------------------------------------------------------------------------------------


    POTLOK:  cpu time    2.48: real time    2.49


--------------------------------------------------------------------------------------------------------


 stress matrix after NEB project (eV)
     -0.80868     -2.60169      0.00000
     -2.60169      4.29697      0.00000
      0.00000      0.00000     -0.86820
  FORCES: max atom, RMS     8.112951    4.815120
  FORCE total and by dimension    8.340032    7.248644
  Stress total and by dimension    5.780074    4.296973
 Quasi-Newton relaxation of ions (Broydens 2nd method)
  g(Force)  = 0.336E+01   g(Stress)= 0.000E+00

 Reset! Starting new Quasi-Newton update for ions 


--------------------------------------------------------------------------------------------------------


    WAVPRE:  cpu time    0.58: real time    0.59
 FEWALD executed in parallel
    FEWALD:  cpu time    0.00: real time    0.00
    ORTHCH:  cpu time    0.03: real time    0.03
     LOOP+:  cpu time   69.59: real time   69.76


----------------------------------------- Iteration    2(   1)  ---------------------------------------


    POTLOK:  cpu time    2.47: real time    2.48
    SETDIJ:  cpu time    0.00: real time    0.00
     EDDAV:  cpu time    0.77: real time    0.77
       DOS:  cpu time    0.00: real time    0.00
    CHARGE:  cpu time    0.20: real time    0.20
    MIXING:  cpu time    0.09: real time    0.09
    --------------------------------------------
      LOOP:  cpu time    3.54: real time    3.55

 eigenvalue-minimisations  :    16
 total energy-change (2. order) : 0.8165060E+00  (-0.3956335E+01)
 number of electron       7.9999939 magnetization 
 augmentation part        0.6439234 magnetization 

 Broyden mixing:
  rms(total) = 0.34122E+00    rms(broyden)= 0.34026E+00
  rms(prec ) = 0.37088E+00
  weight for this iteration     100.00

 Free energy of the ion-electron system (eV)
  ---------------------------------------------------
  alpha Z        PSCENC =         0.06643638
  Ewald energy   TEWEN  =        85.07277873
  -Hartree energ DENC   =      -486.72932814
  -exchange      EXHF   =         0.00000000
  -V(xc)+E(xc)   XCENC  =        33.80415788
  PAW double counting   =       346.01702086     -348.30015474
  entropy T*S    EENTRO =        -0.00000000
  eigenvalues    EBANDS =       -99.92757788
  atomic energy  EATOM  =       457.22046137
  ---------------------------------------------------
  free energy    TOTEN  =       -12.77620554 eV

  energy without entropy =      -12.77620554  energy(sigma->0) =      -12.77620554


--------------------------------------------------------------------------------------------------------




----------------------------------------- Iteration    2(   2)  ---------------------------------------


    POTLOK:  cpu time    2.36: real time    2.36
    SETDIJ:  cpu time    0.00: real time    0.00
     EDDAV:  cpu time    0.76: real time    0.77
       DOS:  cpu time    0.00: real time    0.00
    CHARGE:  cpu time    0.20: real time    0.20
    MIXING:  cpu time    0.09: real time    0.09
    --------------------------------------------
      LOOP:  cpu time    3.42: real time    3.43

 eigenvalue-minimisations  :    16
 total energy-change (2. order) : 0.1094278E-01  (-0.2239241E+00)
 number of electron       7.9999936 magnetization 
 augmentation part        0.6757135 magnetization 

 Broyden mixing:
  rms(total) = 0.18979E+00    rms(broyden)= 0.18956E+00
  rms(prec ) = 0.19999E+00
  weight for this iteration     100.00

 eigenvalues of (default mixing * dielectric matrix)
  average eigenvalue GAMMA=   1.1602
  1.1602

 Free energy of the ion-electron system (eV)
  ---------------------------------------------------
  alpha Z        PSCENC =         0.06643638
  Ewald energy   TEWEN  =        85.07277873
  -Hartree energ DENC   =      -480.97326533
  -exchange      EXHF   =         0.00000000
  -V(xc)+E(xc)   XCENC  =        33.47102187
  PAW double counting   =       326.53451712     -328.70948575
  entropy T*S    EENTRO =        -0.00000000
  eigenvalues    EBANDS =      -105.44772715
  atomic energy  EATOM  =       457.22046137
  ---------------------------------------------------
  free energy    TOTEN  =       -12.76526276 eV

  energy without entropy =      -12.76526276  energy(sigma->0) =      -12.76526276


--------------------------------------------------------------------------------------------------------




----------------------------------------- Iteration    2(   3)  ---------------------------------------


    POTLOK:  cpu time    2.35: real time    2.36
    SETDIJ:  cpu time    0.00: real time    0.00
     EDDAV:  cpu time    1.30: real time    1.31
       DOS:  cpu time    0.00: real time    0.00
    CHARGE:  cpu time    0.20: real time    0.20
    MIXING:  cpu time    0.09: real time    0.09
    --------------------------------------------
      LOOP:  cpu time    3.96: real time    3.96

 eigenvalue-minimisations  :    32
 total energy-change (2. order) : 0.1405050E-01  (-0.4507059E-02)
 number of electron       7.9999936 magnetization 
 augmentation part        0.6736397 magnetization 

 Broyden mixing:
  rms(total) = 0.99933E-01    rms(broyden)= 0.99913E-01
  rms(prec ) = 0.10562E+00
  weight for this iteration     100.00

 eigenvalues of (default mixing * dielectric matrix)
  average eigenvalue GAMMA=   1.6803
  0.9808  2.3798

 Free energy of the ion-electron system (eV)
  ---------------------------------------------------
  alpha Z        PSCENC =         0.06643638
  Ewald energy   TEWEN  =        85.07277873
  -Hartree energ DENC   =      -481.41948716
  -exchange      EXHF   =         0.00000000
  -V(xc)+E(xc)   XCENC  =        33.48637676
  PAW double counting   =       322.25293748     -324.40918636
  entropy T*S    EENTRO =        -0.00000000
  eigenvalues    EBANDS =      -105.02152947
  atomic energy  EATOM  =       457.22046137
  ---------------------------------------------------
  free energy    TOTEN  =       -12.75121226 eV

  energy without entropy =      -12.75121226  energy(sigma->0) =      -12.75121226


--------------------------------------------------------------------------------------------------------




----------------------------------------- Iteration    2(   4)  ---------------------------------------


    POTLOK:  cpu time    2.35: real time    2.36
    SETDIJ:  cpu time    0.01: real time    0.00
     EDDAV:  cpu time    1.30: real time    1.31
       DOS:  cpu time    0.00: real time    0.00
    CHARGE:  cpu time    0.20: real time    0.20
    MIXING:  cpu time    0.10: real time    0.10
    --------------------------------------------
      LOOP:  cpu time    3.95: real time    3.96

 eigenvalue-minimisations  :    32
 total energy-change (2. order) :-0.2429564E-02  (-0.2214933E-02)
 number of electron       7.9999936 magnetization 
 augmentation part        0.6713945 magnetization 

 Broyden mixing:
  rms(total) = 0.13068E-01    rms(broyden)= 0.13051E-01
  rms(prec ) = 0.16023E-01
  weight for this iteration     100.00

 eigenvalues of (default mixing * dielectric matrix)
  average eigenvalue GAMMA=   1.6236
  2.4535  1.0638  1.3536

 Free energy of the ion-electron system (eV)
  ---------------------------------------------------
  alpha Z        PSCENC =         0.06643638
  Ewald energy   TEWEN  =        85.07277873
  -Hartree energ DENC   =      -481.83848115
  -exchange      EXHF   =         0.00000000
  -V(xc)+E(xc)   XCENC  =        33.50000415
  PAW double counting   =       317.86763284     -319.99605897
  entropy T*S    EENTRO =        -0.00000000
  eigenvalues    EBANDS =      -104.64641518
  atomic energy  EATOM  =       457.22046137
  ---------------------------------------------------
  free energy    TOTEN  =       -12.75364183 eV

  energy without entropy =      -12.75364183  energy(sigma->0) =      -12.75364183


--------------------------------------------------------------------------------------------------------




----------------------------------------- Iteration    2(   5)  ---------------------------------------


    POTLOK:  cpu time    2.35: real time    2.36
    SETDIJ:  cpu time    0.00: real time    0.00
     EDDAV:  cpu time    1.03: real time    1.03
       DOS:  cpu time    0.00: real time    0.00
    CHARGE:  cpu time    0.20: real time    0.20
    MIXING:  cpu time    0.10: real time    0.10
    --------------------------------------------
      LOOP:  cpu time    3.69: real time    3.70

 eigenvalue-minimisations  :    24
 total energy-change (2. order) :-0.9609155E-03  (-0.4795839E-03)
 number of electron       7.9999936 magnetization 
 augmentation part        0.6734439 magnetization 

 Broyden mixing:
  rms(total) = 0.77701E-02    rms(broyden)= 0.77369E-02
  rms(prec ) = 0.10027E-01
  weight for this iteration     100.00

 eigenvalues of (default mixing * dielectric matrix)
  average eigenvalue GAMMA=   1.4284
  2.3284  1.7179  0.9925  0.6749

 Free energy of the ion-electron system (eV)
  ---------------------------------------------------
  alpha Z        PSCENC =         0.06643638
  Ewald energy   TEWEN  =        85.07277873
  -Hartree energ DENC   =      -481.58377171
  -exchange      EXHF   =         0.00000000
  -V(xc)+E(xc)   XCENC  =        33.48239755
  PAW double counting   =       316.96454196     -319.08485870
  entropy T*S    EENTRO =        -0.00000000
  eigenvalues    EBANDS =      -104.89258831
  atomic energy  EATOM  =       457.22046137
  ---------------------------------------------------
  free energy    TOTEN  =       -12.75460274 eV

  energy without entropy =      -12.75460274  energy(sigma->0) =      -12.75460274


--------------------------------------------------------------------------------------------------------




----------------------------------------- Iteration    2(   6)  ---------------------------------------


    POTLOK:  cpu time    2.35: real time    2.36
    SETDIJ:  cpu time    0.00: real time    0.00
     EDDAV:  cpu time    1.30: real time    1.30
       DOS:  cpu time    0.00: real time    0.00
    CHARGE:  cpu time    0.20: real time    0.20
    MIXING:  cpu time    0.10: real time    0.11
    --------------------------------------------
      LOOP:  cpu time    3.97: real time    3.98

 eigenvalue-minimisations  :    32
 total energy-change (2. order) :-0.2790677E-03  (-0.3351931E-04)
 number of electron       7.9999936 magnetization 
 augmentation part        0.6727391 magnetization 

 Broyden mixing:
  rms(total) = 0.36146E-02    rms(broyden)= 0.36136E-02
  rms(prec ) = 0.59245E-02
  weight for this iteration     100.00

 eigenvalues of (default mixing * dielectric matrix)
  average eigenvalue GAMMA=   1.5178
  2.5994  1.9131  1.2002  0.9382  0.9382

 Free energy of the ion-electron system (eV)
  ---------------------------------------------------
  alpha Z        PSCENC =         0.06643638
  Ewald energy   TEWEN  =        85.07277873
  -Hartree energ DENC   =      -481.67644075
  -exchange      EXHF   =         0.00000000
  -V(xc)+E(xc)   XCENC  =        33.48617321
  PAW double counting   =       317.10073297     -319.22193140
  entropy T*S    EENTRO =        -0.00000000
  eigenvalues    EBANDS =      -104.80309231
  atomic energy  EATOM  =       457.22046137
  ---------------------------------------------------
  free energy    TOTEN  =       -12.75488181 eV

  energy without entropy =      -12.75488181  energy(sigma->0) =      -12.75488181


--------------------------------------------------------------------------------------------------------




----------------------------------------- Iteration    2(   7)  ---------------------------------------


    POTLOK:  cpu time    2.35: real time    2.36
    SETDIJ:  cpu time    0.00: real time    0.00
     EDDAV:  cpu time    0.77: real time    0.77
       DOS:  cpu time    0.00: real time    0.00
    CHARGE:  cpu time    0.19: real time    0.19
    MIXING:  cpu time    0.11: real time    0.11
    --------------------------------------------
      LOOP:  cpu time    3.43: real time    3.44

 eigenvalue-minimisations  :    16
 total energy-change (2. order) :-0.6906655E-03  (-0.2270535E-04)
 number of electron       7.9999936 magnetization 
 augmentation part        0.6722880 magnetization 

 Broyden mixing:
  rms(total) = 0.16456E-02    rms(broyden)= 0.16424E-02
  rms(prec ) = 0.34251E-02
  weight for this iteration     100.00

 eigenvalues of (default mixing * dielectric matrix)
  average eigenvalue GAMMA=   1.6475
  2.9053  2.4160  1.5242  0.9600  0.9600  1.1197

 Free energy of the ion-electron system (eV)
  ---------------------------------------------------
  alpha Z        PSCENC =         0.06643638
  Ewald energy   TEWEN  =        85.07277873
  -Hartree energ DENC   =      -481.74687594
  -exchange      EXHF   =         0.00000000
  -V(xc)+E(xc)   XCENC  =        33.48810726
  PAW double counting   =       316.97650011     -319.09626221
  entropy T*S    EENTRO =        -0.00000000
  eigenvalues    EBANDS =      -104.73671818
  atomic energy  EATOM  =       457.22046137
  ---------------------------------------------------
  free energy    TOTEN  =       -12.75557248 eV

  energy without entropy =      -12.75557248  energy(sigma->0) =      -12.75557248


--------------------------------------------------------------------------------------------------------




----------------------------------------- Iteration    2(   8)  ---------------------------------------


    POTLOK:  cpu time    2.35: real time    2.36
    SETDIJ:  cpu time    0.00: real time    0.00
     EDDAV:  cpu time    1.03: real time    1.03
       DOS:  cpu time    0.00: real time    0.00
    CHARGE:  cpu time    0.19: real time    0.19
    MIXING:  cpu time    0.11: real time    0.11
    --------------------------------------------
      LOOP:  cpu time    3.70: real time    3.71

 eigenvalue-minimisations  :    24
 total energy-change (2. order) :-0.7545748E-03  (-0.1120364E-04)
 number of electron       7.9999936 magnetization 
 augmentation part        0.6724520 magnetization 

 Broyden mixing:
  rms(total) = 0.10730E-02    rms(broyden)= 0.10722E-02
  rms(prec ) = 0.20510E-02
  weight for this iteration     100.00

 eigenvalues of (default mixing * dielectric matrix)
  average eigenvalue GAMMA=   1.7120
  3.3074  2.4748  1.8492  1.5084  0.9600  0.9421  0.9421

 Free energy of the ion-electron system (eV)
  ---------------------------------------------------
  alpha Z        PSCENC =         0.06643638
  Ewald energy   TEWEN  =        85.07277873
  -Hartree energ DENC   =      -481.72800198
  -exchange      EXHF   =         0.00000000
  -V(xc)+E(xc)   XCENC  =        33.48567085
  PAW double counting   =       316.90187759     -319.02100698
  entropy T*S    EENTRO =        -0.00000000
  eigenvalues    EBANDS =      -104.75454301
  atomic energy  EATOM  =       457.22046137
  ---------------------------------------------------
  free energy    TOTEN  =       -12.75632705 eV

  energy without entropy =      -12.75632705  energy(sigma->0) =      -12.75632705


--------------------------------------------------------------------------------------------------------




----------------------------------------- Iteration    2(   9)  ---------------------------------------


    POTLOK:  cpu time    2.36: real time    2.37
    SETDIJ:  cpu time    0.00: real time    0.00
     EDDAV:  cpu time    1.04: real time    1.04
       DOS:  cpu time    0.00: real time    0.00
    CHARGE:  cpu time    0.19: real time    0.19
    MIXING:  cpu time    0.12: real time    0.12
    --------------------------------------------
      LOOP:  cpu time    3.72: real time    3.72

 eigenvalue-minimisations  :    24
 total energy-change (2. order) :-0.5227078E-03  (-0.6780551E-05)
 number of electron       7.9999936 magnetization 
 augmentation part        0.6723403 magnetization 

 Broyden mixing:
  rms(total) = 0.53603E-03    rms(broyden)= 0.53489E-03
  rms(prec ) = 0.11231E-02
  weight for this iteration     100.00

 eigenvalues of (default mixing * dielectric matrix)
  average eigenvalue GAMMA=   1.9761
  5.0323  2.6453  2.3437  1.8045  1.1320  0.9617  0.9446  0.9446

 Free energy of the ion-electron system (eV)
  ---------------------------------------------------
  alpha Z        PSCENC =         0.06643638
  Ewald energy   TEWEN  =        85.07277873
  -Hartree energ DENC   =      -481.74114903
  -exchange      EXHF   =         0.00000000
  -V(xc)+E(xc)   XCENC  =        33.48585569
  PAW double counting   =       316.94156196     -319.06135901
  entropy T*S    EENTRO =        -0.00000000
  eigenvalues    EBANDS =      -104.74143585
  atomic energy  EATOM  =       457.22046137
  ---------------------------------------------------
  free energy    TOTEN  =       -12.75684976 eV

  energy without entropy =      -12.75684976  energy(sigma->0) =      -12.75684976


--------------------------------------------------------------------------------------------------------




----------------------------------------- Iteration    2(  10)  ---------------------------------------


    POTLOK:  cpu time    2.38: real time    2.39
    SETDIJ:  cpu time    0.00: real time    0.00
     EDDAV:  cpu time    1.04: real time    1.04
       DOS:  cpu time    0.00: real time    0.00
    CHARGE:  cpu time    0.19: real time    0.19
    MIXING:  cpu time    0.12: real time    0.12
    --------------------------------------------
      LOOP:  cpu time    3.74: real time    3.75

 eigenvalue-minimisations  :    24
 total energy-change (2. order) :-0.3223783E-03  (-0.4164322E-05)
 number of electron       7.9999936 magnetization 
 augmentation part        0.6723667 magnetization 

 Broyden mixing:
  rms(total) = 0.35023E-03    rms(broyden)= 0.35020E-03
  rms(prec ) = 0.59972E-03
  weight for this iteration     100.00

 eigenvalues of (default mixing * dielectric matrix)
  average eigenvalue GAMMA=   2.0636
  5.6973  3.0362  2.3283  2.0174  1.5934  0.9461  0.9461  0.9716  1.0363

 Free energy of the ion-electron system (eV)
  ---------------------------------------------------
  alpha Z        PSCENC =         0.06643638
  Ewald energy   TEWEN  =        85.07277873
  -Hartree energ DENC   =      -481.73541774
  -exchange      EXHF   =         0.00000000
  -V(xc)+E(xc)   XCENC  =        33.48517098
  PAW double counting   =       316.94444902     -319.06429493
  entropy T*S    EENTRO =        -0.00000000
  eigenvalues    EBANDS =      -104.74675595
  atomic energy  EATOM  =       457.22046137
  ---------------------------------------------------
  free energy    TOTEN  =       -12.75717214 eV

  energy without entropy =      -12.75717214  energy(sigma->0) =      -12.75717214


--------------------------------------------------------------------------------------------------------




----------------------------------------- Iteration    2(  11)  ---------------------------------------


    POTLOK:  cpu time    2.40: real time    2.41
    SETDIJ:  cpu time    0.00: real time    0.00
     EDDAV:  cpu time    1.04: real time    1.04
       DOS:  cpu time    0.00: real time    0.00
    CHARGE:  cpu time    0.19: real time    0.19
    MIXING:  cpu time    0.13: real time    0.13
    --------------------------------------------
      LOOP:  cpu time    3.77: real time    3.78

 eigenvalue-minimisations  :    24
 total energy-change (2. order) :-0.1675269E-03  (-0.7738271E-06)
 number of electron       7.9999936 magnetization 
 augmentation part        0.6723701 magnetization 

 Broyden mixing:
  rms(total) = 0.14121E-03    rms(broyden)= 0.14110E-03
  rms(prec ) = 0.26775E-03
  weight for this iteration     100.00

 eigenvalues of (default mixing * dielectric matrix)
  average eigenvalue GAMMA=   2.2183
  7.2822  3.3641  2.5907  2.1758  1.8094  0.9429  0.9429  1.1531  0.9462  0.9761

 Free energy of the ion-electron system (eV)
  ---------------------------------------------------
  alpha Z        PSCENC =         0.06643638
  Ewald energy   TEWEN  =        85.07277873
  -Hartree energ DENC   =      -481.73082755
  -exchange      EXHF   =         0.00000000
  -V(xc)+E(xc)   XCENC  =        33.48478590
  PAW double counting   =       316.93924039     -319.05885037
  entropy T*S    EENTRO =        -0.00000000
  eigenvalues    EBANDS =      -104.75136452
  atomic energy  EATOM  =       457.22046137
  ---------------------------------------------------
  free energy    TOTEN  =       -12.75733966 eV

  energy without entropy =      -12.75733966  energy(sigma->0) =      -12.75733966


--------------------------------------------------------------------------------------------------------




----------------------------------------- Iteration    2(  12)  ---------------------------------------


    POTLOK:  cpu time    2.43: real time    2.44
    SETDIJ:  cpu time    0.00: real time    0.00
     EDDAV:  cpu time    1.31: real time    1.31
       DOS:  cpu time    0.00: real time    0.00
    --------------------------------------------
      LOOP:  cpu time    3.74: real time    3.75

 eigenvalue-minimisations  :    32
 total energy-change (2. order) :-0.6950118E-04  (-0.2139857E-06)
 number of electron       7.9999936 magnetization 
 augmentation part        0.6723701 magnetization 

 Free energy of the ion-electron system (eV)
  ---------------------------------------------------
  alpha Z        PSCENC =         0.06643638
  Ewald energy   TEWEN  =        85.07277873
  -Hartree energ DENC   =      -481.72825270
  -exchange      EXHF   =         0.00000000
  -V(xc)+E(xc)   XCENC  =        33.48460331
  PAW double counting   =       316.92919079     -319.04867867
  entropy T*S    EENTRO =        -0.00000000
  eigenvalues    EBANDS =      -104.75394838
  atomic energy  EATOM  =       457.22046137
  ---------------------------------------------------
  free energy    TOTEN  =       -12.75740917 eV

  energy without entropy =      -12.75740917  energy(sigma->0) =      -12.75740917


--------------------------------------------------------------------------------------------------------




 average (electrostatic) potential at core
  the test charge radii are     0.7215  0.5201
  (the norm of the test charge is              1.0000)
       1 -80.4430       2 -45.6431       3 -43.3555
 
 
 
 E-fermi :  -6.4069     XC(G=0):  -0.2404     alpha+bet : -0.0386


 k-point     1 :       0.0000    0.0000    0.0000
  band No.  band energies     occupation 
      1     -24.4791      2.00000
      2     -12.7664      2.00000
      3      -8.2409      2.00000
      4      -6.8905      2.00000
      5      -2.0439      0.00000
      6      -0.0844      0.00000
      7       0.1959      0.00000
      8       0.4901      0.00000


--------------------------------------------------------------------------------------------------------


 soft charge-density along one line, spin component           1
         0         1         2         3         4         5         6         7         8         9
 total charge-density along one line
 
 pseudopotential strength for first ion, spin component:           1
[...]
  Fock        0.00000     0.00000     0.00000     0.00000     0.00000     0.00000
  -------------------------------------------------------------------------------------
  Total      -0.54340    -0.59737    -0.86402    -0.08928     0.00000     0.00000
  in kB      -0.25796    -0.28358    -0.41017    -0.04238     0.00000     0.00000
  external pressure =       -0.32 kB  Pullay stress =        0.00 kB


 VOLUME and BASIS-vectors are now :
 -----------------------------------------------------------------------------
  energy-cutoff  :      400.00
  volume of cell :     3375.00
      direct lattice vectors                 reciprocal lattice vectors
    15.000000000  0.000000000  0.000000000     0.066666667  0.000000000  0.000000000
     0.000000000 15.000000000  0.000000000     0.000000000  0.066666667  0.000000000
     0.000000000  0.000000000 15.000000000     0.000000000  0.000000000  0.066666667

  length of vectors
    15.000000000 15.000000000 15.000000000     0.066666667  0.066666667  0.066666667


 FORCES acting on ions
    electron-ion (+dipol)            ewald-force                    non-local-force                 convergence-correction
 -----------------------------------------------------------------------------------------------
   0.387E+02 0.499E+02 -.113E-14   -.690E+02 -.890E+02 0.754E-17   0.302E+02 0.390E+02 0.000E+00   -.358E-01 -.408E-01 0.140E-12
   -.881E+02 0.344E+01 0.418E-06   0.967E+02 -.374E+01 -.644E-18   -.836E+01 0.288E+00 0.000E+00   -.106E-02 -.397E-02 0.149E-13
   0.253E+02 -.845E+02 0.978E-08   -.277E+02 0.927E+02 -.139E-17   0.236E+01 -.803E+01 0.000E+00   -.399E-02 0.224E-02 0.191E-13
 -----------------------------------------------------------------------------------------------
   -.242E+02 -.312E+02 0.427E-06   0.000E+00 0.000E+00 0.551E-17   0.242E+02 0.312E+02 0.000E+00   -.409E-01 -.425E-01 0.174E-12
 
 
 POSITION                                       TOTAL-FORCE (eV/Angst)
 -----------------------------------------------------------------------------------
      0.00000      0.00000      0.00000        -0.116238     -0.139901      0.000000
      0.96927      0.00000      0.00000         0.171510     -0.016908      0.000000
     14.75884      0.93891      0.00000        -0.055272      0.156809      0.000000
 -----------------------------------------------------------------------------------
    total drift:                                0.007283      0.000724      0.000000


--------------------------------------------------------------------------------------------------------



  FREE ENERGIE OF THE ION-ELECTRON SYSTEM (eV)
  ---------------------------------------------------
  free  energy   TOTEN  =       -14.22283381 eV

  energy  without entropy=      -14.22283381  energy(sigma->0) =      -14.22283381
 
 d Force = 0.1053355E-01[ 0.165E-03, 0.209E-01]  d Energy = 0.1042342E-01 0.110E-03
 d Force =-0.3685192E+00[-0.179E+00,-0.558E+00]  d Ewald  =-0.3677075E+00-0.812E-03


--------------------------------------------------------------------------------------------------------


    POTLOK:  cpu time    2.46: real time    2.47


--------------------------------------------------------------------------------------------------------


 stress matrix after NEB project (eV)
     -0.54340     -0.08928      0.00000
     -0.08928     -0.59737      0.00000
      0.00000      0.00000     -0.86402
  FORCES: max atom, RMS     0.171510    0.137913
  FORCE total and by dimension    0.238872    0.171510
  Stress total and by dimension    1.189369    0.864018
 Quasi-Newton relaxation of ions (Broydens 2nd method)
  g(Force)  = 0.275E-02   g(Stress)= 0.000E+00

 retain information from N=  2 steps
 eigenvalues of (default step * inverse Hessian matrix)
  average eigenvalue of G=   2.1076
 eigenvalue spectrum of G is  2.1076  2.1076


--------------------------------------------------------------------------------------------------------


    WAVPRE:  cpu time    0.63: real time    0.63
 FEWALD executed in parallel
    FEWALD:  cpu time    0.00: real time    0.00
    ORTHCH:  cpu time    0.03: real time    0.03
     LOOP+:  cpu time   20.89: real time   20.95


----------------------------------------- Iteration   10(   1)  ---------------------------------------


    POTLOK:  cpu time    2.59: real time    2.60
    SETDIJ:  cpu time    0.00: real time    0.00
     EDDAV:  cpu time    1.31: real time    1.31
       DOS:  cpu time    0.00: real time    0.00
    CHARGE:  cpu time    0.20: real time    0.20
    MIXING:  cpu time    0.09: real time    0.09
    --------------------------------------------
      LOOP:  cpu time    4.19: real time    4.20

 eigenvalue-minimisations  :    32
 total energy-change (2. order) : 0.2321238E-03  (-0.1735015E-01)
 number of electron       7.9999938 magnetization 
 augmentation part        0.6828974 magnetization 

 Broyden mixing:
  rms(total) = 0.17440E-01    rms(broyden)= 0.17393E-01
  rms(prec ) = 0.18993E-01
  weight for this iteration     100.00

 Free energy of the ion-electron system (eV)
  ---------------------------------------------------
  alpha Z        PSCENC =         0.06643638
  Ewald energy   TEWEN  =        99.62092169
  -Hartree energ DENC   =      -493.88796307
  -exchange      EXHF   =         0.00000000
  -V(xc)+E(xc)   XCENC  =        34.06467567
  PAW double counting   =       329.48538590     -331.59772829
  entropy T*S    EENTRO =        -0.00000000
  eigenvalues    EBANDS =      -109.19475461
  atomic energy  EATOM  =       457.22046137
  ---------------------------------------------------
  free energy    TOTEN  =       -14.22256496 eV

  energy without entropy =      -14.22256496  energy(sigma->0) =      -14.22256496


--------------------------------------------------------------------------------------------------------




----------------------------------------- Iteration   10(   2)  ---------------------------------------


    POTLOK:  cpu time    2.42: real time    2.43
    SETDIJ:  cpu time    0.00: real time    0.00
     EDDAV:  cpu time    1.31: real time    1.31
       DOS:  cpu time    0.00: real time    0.00
    CHARGE:  cpu time    0.20: real time    0.20
    MIXING:  cpu time    0.09: real time    0.09
    --------------------------------------------
      LOOP:  cpu time    4.03: real time    4.03

 eigenvalue-minimisations  :    32
 total energy-change (2. order) : 0.2788066E-03  (-0.2669444E-03)
 number of electron       7.9999938 magnetization 
 augmentation part        0.6853068 magnetization 

 Broyden mixing:
  rms(total) = 0.74951E-02    rms(broyden)= 0.74862E-02
  rms(prec ) = 0.78445E-02
  weight for this iteration     100.00

 eigenvalues of (default mixing * dielectric matrix)
  average eigenvalue GAMMA=   1.1621
  1.1621

 Free energy of the ion-electron system (eV)
  ---------------------------------------------------
  alpha Z        PSCENC =         0.06643638
  Ewald energy   TEWEN  =        99.62092169
  -Hartree energ DENC   =      -493.56168850
  -exchange      EXHF   =         0.00000000
  -V(xc)+E(xc)   XCENC  =        34.04643157
  PAW double counting   =       328.43599601     -330.53931346
  entropy T*S    EENTRO =        -0.00000000
  eigenvalues    EBANDS =      -109.51153120
  atomic energy  EATOM  =       457.22046137
  ---------------------------------------------------
  free energy    TOTEN  =       -14.22228616 eV

  energy without entropy =      -14.22228616  energy(sigma->0) =      -14.22228616


--------------------------------------------------------------------------------------------------------




----------------------------------------- Iteration   10(   3)  ---------------------------------------


    POTLOK:  cpu time    2.42: real time    2.43
    SETDIJ:  cpu time    0.00: real time    0.00
     EDDAV:  cpu time    1.30: real time    1.31
       DOS:  cpu time    0.00: real time    0.00
    CHARGE:  cpu time    0.20: real time    0.20
    MIXING:  cpu time    0.09: real time    0.09
    --------------------------------------------
      LOOP:  cpu time    4.03: real time    4.03

 eigenvalue-minimisations  :    32
 total energy-change (2. order) :-0.1277862E-03  (-0.2025154E-05)
 number of electron       7.9999938 magnetization 
 augmentation part        0.6851988 magnetization 

 Broyden mixing:
  rms(total) = 0.41295E-02    rms(broyden)= 0.41290E-02
  rms(prec ) = 0.43384E-02
  weight for this iteration     100.00

 eigenvalues of (default mixing * dielectric matrix)
  average eigenvalue GAMMA=   1.7392
  0.9675  2.5109

 Free energy of the ion-electron system (eV)
  ---------------------------------------------------
  alpha Z        PSCENC =         0.06643638
  Ewald energy   TEWEN  =        99.62092169
  -Hartree energ DENC   =      -493.57228585
  -exchange      EXHF   =         0.00000000
  -V(xc)+E(xc)   XCENC  =        34.04692187
  PAW double counting   =       328.17903768     -330.28122967
  entropy T*S    EENTRO =        -0.00000000
  eigenvalues    EBANDS =      -109.50267740
  atomic energy  EATOM  =       457.22046137
  ---------------------------------------------------
  free energy    TOTEN  =       -14.22241394 eV

  energy without entropy =      -14.22241394  energy(sigma->0) =      -14.22241394


--------------------------------------------------------------------------------------------------------




----------------------------------------- Iteration   10(   4)  ---------------------------------------


    POTLOK:  cpu time    2.42: real time    2.42
    SETDIJ:  cpu time    0.00: real time    0.00
     EDDAV:  cpu time    0.77: real time    0.77
       DOS:  cpu time    0.00: real time    0.00
    CHARGE:  cpu time    0.20: real time    0.20
    MIXING:  cpu time    0.10: real time    0.10
    --------------------------------------------
      LOOP:  cpu time    3.49: real time    3.50

 eigenvalue-minimisations  :    16
 total energy-change (2. order) :-0.1350300E-03  (-0.2505478E-05)
 number of electron       7.9999938 magnetization 
 augmentation part        0.6852130 magnetization 

 Broyden mixing:
  rms(total) = 0.30765E-03    rms(broyden)= 0.30679E-03
  rms(prec ) = 0.39174E-03
  weight for this iteration     100.00

 eigenvalues of (default mixing * dielectric matrix)
  average eigenvalue GAMMA=   1.7662
  2.5079  0.9718  1.8188

 Free energy of the ion-electron system (eV)
  ---------------------------------------------------
  alpha Z        PSCENC =         0.06643638
  Ewald energy   TEWEN  =        99.62092169
  -Hartree energ DENC   =      -493.56847558
  -exchange      EXHF   =         0.00000000
  -V(xc)+E(xc)   XCENC  =        34.04660660
  PAW double counting   =       327.82948140     -329.92981983
  entropy T*S    EENTRO =        -0.00000000
  eigenvalues    EBANDS =      -109.50816099
  atomic energy  EATOM  =       457.22046137
  ---------------------------------------------------
  free energy    TOTEN  =       -14.22254897 eV

  energy without entropy =      -14.22254897  energy(sigma->0) =      -14.22254897


--------------------------------------------------------------------------------------------------------




----------------------------------------- Iteration   10(   5)  ---------------------------------------


    POTLOK:  cpu time    2.42: real time    2.43
    SETDIJ:  cpu time    0.00: real time    0.00
     EDDAV:  cpu time    1.30: real time    1.31
       DOS:  cpu time    0.00: real time    0.00
    --------------------------------------------
      LOOP:  cpu time    3.73: real time    3.74

 eigenvalue-minimisations  :    32
 total energy-change (2. order) :-0.2834226E-04  (-0.2225451E-06)
 number of electron       7.9999938 magnetization 
 augmentation part        0.6852130 magnetization 

 Free energy of the ion-electron system (eV)
  ---------------------------------------------------
  alpha Z        PSCENC =         0.06643638
  Ewald energy   TEWEN  =        99.62092169
  -Hartree energ DENC   =      -493.56825068
  -exchange      EXHF   =         0.00000000
  -V(xc)+E(xc)   XCENC  =        34.04656303
  PAW double counting   =       327.82953617     -329.92987032
  entropy T*S    EENTRO =        -0.00000000
  eigenvalues    EBANDS =      -109.50837494
  atomic energy  EATOM  =       457.22046137
  ---------------------------------------------------
  free energy    TOTEN  =       -14.22257732 eV

  energy without entropy =      -14.22257732  energy(sigma->0) =      -14.22257732


--------------------------------------------------------------------------------------------------------




 average (electrostatic) potential at core
  the test charge radii are     0.7215  0.5201
  (the norm of the test charge is              1.0000)
       1 -80.6254       2 -44.6111       3 -44.6389
 
 
 
 E-fermi :  -6.7005     XC(G=0):  -0.2124     alpha+bet : -0.0386


 k-point     1 :       0.0000    0.0000    0.0000
  band No.  band energies     occupation 
      1     -25.2758      2.00000
      2     -12.9861      2.00000
      3      -9.3085      2.00000
      4      -7.1837      2.00000
      5      -0.9786      0.00000
      6       0.0641      0.00000
      7       0.3234      0.00000
      8       0.5191      0.00000


--------------------------------------------------------------------------------------------------------


 soft charge-density along one line, spin component           1
         0         1         2         3         4         5         6         7         8         9
 total charge-density along one line
 
 pseudopotential strength for first ion, spin component:           1
 13.810  -0.529  -0.095   0.000  -0.075   0.005  -0.000   0.004
 -0.529   0.120   0.012  -0.000   0.009  -0.002   0.000  -0.002
 -0.095   0.012 -10.543   0.000   0.044   0.293  -0.000  -0.007
  0.000  -0.000   0.000 -10.364   0.000  -0.000   0.263  -0.000
 -0.075   0.009   0.044   0.000 -10.563  -0.007  -0.000   0.296
  0.005  -0.002   0.293  -0.000  -0.007   0.126   0.000   0.002
 -0.000   0.000  -0.000   0.263  -0.000   0.000   0.135   0.000
  0.004  -0.002  -0.007  -0.000   0.296   0.002   0.000   0.125
 total augmentation occupancy for first ion, spin component:           1
  1.861   0.203  -0.133   0.000  -0.106   0.042   0.000   0.033
  0.203   0.046   0.136   0.000   0.107   0.025   0.000   0.020
 -0.133   0.136   1.503   0.000   0.074   0.231   0.000  -0.027
  0.000   0.000   0.000   1.810   0.000   0.000   0.111   0.000
 -0.106   0.107   0.074   0.000   1.466  -0.027   0.000   0.243
  0.042   0.025   0.231   0.000  -0.027   0.038   0.000  -0.009
  0.000   0.000   0.000   0.111   0.000   0.000   0.007   0.000
  0.033   0.020  -0.027   0.000   0.243  -0.009   0.000   0.042


------------------------ aborting loop because EDIFF is reached ----------------------------------------


    CHARGE:  cpu time    0.20: real time    0.20
    FORLOC:  cpu time    0.27: real time    0.28
    FORNL :  cpu time    0.10: real time    0.10
    STRESS:  cpu time    0.76: real time    0.76
    FORHAR:  cpu time    0.89: real time    0.89
    MIXING:  cpu time    0.10: real time    0.10
    OFIELD:  cpu time    0.00: real time    0.00

  FORCE on cell =-STRESS in cart. coord.  units (eV):
  Direction    XX          YY          ZZ          XY          YZ          ZX
  --------------------------------------------------------------------------------------
  Alpha Z     0.06644     0.06644     0.06644
  Ewald      69.94213    58.79452   -29.11572   -24.17027     0.00000    -0.00000
  Hartree   171.04977   169.11054   153.41074    -4.06437    -0.00000    -0.00000
  E(xc)     -35.95852   -35.99915   -36.37386    -0.08692     0.00000     0.00000
  Local    -320.99915  -311.01164  -234.01669    21.35286     0.00000    -0.00000
  n-local   -30.67017   -30.90504   -31.13753    -0.44307    -0.00000    -0.00000
  augment     6.12535     6.32974     8.12129     0.43837     0.00000     0.00000
  Kinetic   139.60622   142.83604   168.17170     6.85648     0.00000     0.00000
  Fock        0.00000     0.00000     0.00000     0.00000     0.00000     0.00000
  -------------------------------------------------------------------------------------
  Total      -0.83793    -0.77856    -0.87364    -0.11691     0.00000     0.00000
  in kB      -0.39778    -0.36960    -0.41474    -0.05550     0.00000     0.00000
  external pressure =       -0.39 kB  Pullay stress =        0.00 kB


 VOLUME and BASIS-vectors are now :
 -----------------------------------------------------------------------------
  energy-cutoff  :      400.00
  volume of cell :     3375.00
      direct lattice vectors                 reciprocal lattice vectors
    15.000000000  0.000000000  0.000000000     0.066666667  0.000000000  0.000000000
     0.000000000 15.000000000  0.000000000     0.000000000  0.066666667  0.000000000
     0.000000000  0.000000000 15.000000000     0.000000000  0.000000000  0.066666667

  length of vectors
    15.000000000 15.000000000 15.000000000     0.066666667  0.066666667  0.066666667


 FORCES acting on ions
    electron-ion (+dipol)            ewald-force                    non-local-force                 convergence-correction
 -----------------------------------------------------------------------------------------------
   0.394E+02 0.500E+02 -.208E-14   -.699E+02 -.886E+02 0.924E-17   0.307E+02 0.388E+02 0.000E+00   -.104E-02 0.142E-02 -.329E-12
   -.873E+02 0.345E+01 0.453E-06   0.954E+02 -.381E+01 -.280E-17   -.816E+01 0.267E+00 0.000E+00   0.161E-04 0.143E-03 -.355E-13
   0.233E+02 -.845E+02 -.294E-07   -.255E+02 0.924E+02 -.923E-18   0.213E+01 -.795E+01 0.000E+00   -.325E-03 0.214E-03 -.405E-13
 -----------------------------------------------------------------------------------------------
   -.247E+02 -.311E+02 0.424E-06   0.142E-13 0.000E+00 0.551E-17   0.247E+02 0.311E+02 0.000E+00   -.135E-02 0.177E-02 -.405E-12
 
 
 POSITION                                       TOTAL-FORCE (eV/Angst)
 -----------------------------------------------------------------------------------
      0.00000      0.00000      0.00000         0.214114      0.123341      0.000000
      0.97617      0.00000      0.00000        -0.125579     -0.093457      0.000000
     14.77856      0.94828      0.00000        -0.088534     -0.029884      0.000000
 -----------------------------------------------------------------------------------
    total drift:                               -0.001553     -0.000309      0.000000


--------------------------------------------------------------------------------------------------------



  FREE ENERGIE OF THE ION-ELECTRON SYSTEM (eV)
  ---------------------------------------------------
  free  energy   TOTEN  =       -14.22257732 eV

  energy  without entropy=      -14.22257732  energy(sigma->0) =      -14.22257732
 
 d Force =-0.6643367E-03[-0.289E-02, 0.156E-02]  d Energy =-0.2564952E-03-0.408E-03
 d Force = 0.1005786E+01[ 0.102E+01, 0.990E+00]  d Ewald  = 0.1005911E+01-0.125E-03


--------------------------------------------------------------------------------------------------------


    POTLOK:  cpu time    2.43: real time    2.43


--------------------------------------------------------------------------------------------------------


 stress matrix after NEB project (eV)
     -0.83793     -0.11691      0.00000
     -0.11691     -0.77856      0.00000
      0.00000      0.00000     -0.87364
  FORCES: max atom, RMS     0.125579    0.090372
  FORCE total and by dimension    0.156530    0.125579
  Stress total and by dimension    1.448752    0.873644
 Quasi-Newton relaxation of ions (Broydens 2nd method)
  g(Force)  = 0.118E-02   g(Stress)= 0.000E+00

 retain information from N=  2 steps
 eigenvalues of (default step * inverse Hessian matrix)
  average eigenvalue of G=   1.3438
 eigenvalue spectrum of G is  1.7499  0.9377


--------------------------------------------------------------------------------------------------------


 writing wavefunctions
     LOOP+:  cpu time   24.24: real time   24.30
